Start File for LAMMPS

12552 atoms
8324 bonds
4096 angles
0 dihedrals

4 atom types
3 bond types
1 angle types
0 dihedral types

0.000 160.000 xlo xhi
0.000 160.000 ylo yhi
0.000 160.000 zlo zhi

Masses

1  15.9994
2  1.0080
3  14.0067
4  15.9994

Bond Coeffs

1 450 0.9572
2 3238.4000 1.0850
3 830.0490 1.2440

Angle Coeffs

1  55  104.5200

Atoms

1  1  1  -1.0484  57.5000  58.5000  57.5000
2  1  2  0.5242  56.7430  57.9141  57.5000
3  1  2  0.5242  58.2570  57.9141  57.5000
4  2  1  -1.0484  60.5000  58.5000  57.5000
5  2  2  0.5242  59.7430  57.9141  57.5000
6  2  2  0.5242  61.2570  57.9141  57.5000
7  3  1  -1.0484  63.5000  58.5000  57.5000
8  3  2  0.5242  62.7430  57.9141  57.5000
9  3  2  0.5242  64.2570  57.9141  57.5000
10  4  1  -1.0484  66.5000  58.5000  57.5000
11  4  2  0.5242  65.7430  57.9141  57.5000
12  4  2  0.5242  67.2570  57.9141  57.5000
13  5  1  -1.0484  69.5000  58.5000  57.5000
14  5  2  0.5242  68.7430  57.9141  57.5000
15  5  2  0.5242  70.2570  57.9141  57.5000
16  6  1  -1.0484  72.5000  58.5000  57.5000
17  6  2  0.5242  71.7430  57.9141  57.5000
18  6  2  0.5242  73.2570  57.9141  57.5000
19  7  1  -1.0484  75.5000  58.5000  57.5000
20  7  2  0.5242  74.7430  57.9141  57.5000
21  7  2  0.5242  76.2570  57.9141  57.5000
22  8  1  -1.0484  78.5000  58.5000  57.5000
23  8  2  0.5242  77.7430  57.9141  57.5000
24  8  2  0.5242  79.2570  57.9141  57.5000
25  9  1  -1.0484  81.5000  58.5000  57.5000
26  9  2  0.5242  80.7430  57.9141  57.5000
27  9  2  0.5242  82.2570  57.9141  57.5000
28  10  1  -1.0484  84.5000  58.5000  57.5000
29  10  2  0.5242  83.7430  57.9141  57.5000
30  10  2  0.5242  85.2570  57.9141  57.5000
31  11  1  -1.0484  87.5000  58.5000  57.5000
32  11  2  0.5242  86.7430  57.9141  57.5000
33  11  2  0.5242  88.2570  57.9141  57.5000
34  12  1  -1.0484  90.5000  58.5000  57.5000
35  12  2  0.5242  89.7430  57.9141  57.5000
36  12  2  0.5242  91.2570  57.9141  57.5000
37  13  1  -1.0484  93.5000  58.5000  57.5000
38  13  2  0.5242  92.7430  57.9141  57.5000
39  13  2  0.5242  94.2570  57.9141  57.5000
40  14  1  -1.0484  96.5000  58.5000  57.5000
41  14  2  0.5242  95.7430  57.9141  57.5000
42  14  2  0.5242  97.2570  57.9141  57.5000
43  15  1  -1.0484  99.5000  58.5000  57.5000
44  15  2  0.5242  98.7430  57.9141  57.5000
45  15  2  0.5242  100.2570  57.9141  57.5000
46  16  1  -1.0484  102.5000  58.5000  57.5000
47  16  2  0.5242  101.7430  57.9141  57.5000
48  16  2  0.5242  103.2570  57.9141  57.5000
49  17  1  -1.0484  57.5000  61.5000  57.5000
50  17  2  0.5242  56.7430  60.9141  57.5000
51  17  2  0.5242  58.2570  60.9141  57.5000
52  18  1  -1.0484  60.5000  61.5000  57.5000
53  18  2  0.5242  59.7430  60.9141  57.5000
54  18  2  0.5242  61.2570  60.9141  57.5000
55  19  1  -1.0484  63.5000  61.5000  57.5000
56  19  2  0.5242  62.7430  60.9141  57.5000
57  19  2  0.5242  64.2570  60.9141  57.5000
58  20  1  -1.0484  66.5000  61.5000  57.5000
59  20  2  0.5242  65.7430  60.9141  57.5000
60  20  2  0.5242  67.2570  60.9141  57.5000
61  21  1  -1.0484  69.5000  61.5000  57.5000
62  21  2  0.5242  68.7430  60.9141  57.5000
63  21  2  0.5242  70.2570  60.9141  57.5000
64  22  1  -1.0484  72.5000  61.5000  57.5000
65  22  2  0.5242  71.7430  60.9141  57.5000
66  22  2  0.5242  73.2570  60.9141  57.5000
67  23  1  -1.0484  75.5000  61.5000  57.5000
68  23  2  0.5242  74.7430  60.9141  57.5000
69  23  2  0.5242  76.2570  60.9141  57.5000
70  24  1  -1.0484  78.5000  61.5000  57.5000
71  24  2  0.5242  77.7430  60.9141  57.5000
72  24  2  0.5242  79.2570  60.9141  57.5000
73  25  1  -1.0484  81.5000  61.5000  57.5000
74  25  2  0.5242  80.7430  60.9141  57.5000
75  25  2  0.5242  82.2570  60.9141  57.5000
76  26  1  -1.0484  84.5000  61.5000  57.5000
77  26  2  0.5242  83.7430  60.9141  57.5000
78  26  2  0.5242  85.2570  60.9141  57.5000
79  27  1  -1.0484  87.5000  61.5000  57.5000
80  27  2  0.5242  86.7430  60.9141  57.5000
81  27  2  0.5242  88.2570  60.9141  57.5000
82  28  1  -1.0484  90.5000  61.5000  57.5000
83  28  2  0.5242  89.7430  60.9141  57.5000
84  28  2  0.5242  91.2570  60.9141  57.5000
85  29  1  -1.0484  93.5000  61.5000  57.5000
86  29  2  0.5242  92.7430  60.9141  57.5000
87  29  2  0.5242  94.2570  60.9141  57.5000
88  30  1  -1.0484  96.5000  61.5000  57.5000
89  30  2  0.5242  95.7430  60.9141  57.5000
90  30  2  0.5242  97.2570  60.9141  57.5000
91  31  1  -1.0484  99.5000  61.5000  57.5000
92  31  2  0.5242  98.7430  60.9141  57.5000
93  31  2  0.5242  100.2570  60.9141  57.5000
94  32  1  -1.0484  102.5000  61.5000  57.5000
95  32  2  0.5242  101.7430  60.9141  57.5000
96  32  2  0.5242  103.2570  60.9141  57.5000
97  33  1  -1.0484  57.5000  64.5000  57.5000
98  33  2  0.5242  56.7430  63.9141  57.5000
99  33  2  0.5242  58.2570  63.9141  57.5000
100  34  1  -1.0484  60.5000  64.5000  57.5000
101  34  2  0.5242  59.7430  63.9141  57.5000
102  34  2  0.5242  61.2570  63.9141  57.5000
103  35  1  -1.0484  63.5000  64.5000  57.5000
104  35  2  0.5242  62.7430  63.9141  57.5000
105  35  2  0.5242  64.2570  63.9141  57.5000
106  36  1  -1.0484  66.5000  64.5000  57.5000
107  36  2  0.5242  65.7430  63.9141  57.5000
108  36  2  0.5242  67.2570  63.9141  57.5000
109  37  1  -1.0484  69.5000  64.5000  57.5000
110  37  2  0.5242  68.7430  63.9141  57.5000
111  37  2  0.5242  70.2570  63.9141  57.5000
112  38  1  -1.0484  72.5000  64.5000  57.5000
113  38  2  0.5242  71.7430  63.9141  57.5000
114  38  2  0.5242  73.2570  63.9141  57.5000
115  39  1  -1.0484  75.5000  64.5000  57.5000
116  39  2  0.5242  74.7430  63.9141  57.5000
117  39  2  0.5242  76.2570  63.9141  57.5000
118  40  1  -1.0484  78.5000  64.5000  57.5000
119  40  2  0.5242  77.7430  63.9141  57.5000
120  40  2  0.5242  79.2570  63.9141  57.5000
121  41  1  -1.0484  81.5000  64.5000  57.5000
122  41  2  0.5242  80.7430  63.9141  57.5000
123  41  2  0.5242  82.2570  63.9141  57.5000
124  42  1  -1.0484  84.5000  64.5000  57.5000
125  42  2  0.5242  83.7430  63.9141  57.5000
126  42  2  0.5242  85.2570  63.9141  57.5000
127  43  1  -1.0484  87.5000  64.5000  57.5000
128  43  2  0.5242  86.7430  63.9141  57.5000
129  43  2  0.5242  88.2570  63.9141  57.5000
130  44  1  -1.0484  90.5000  64.5000  57.5000
131  44  2  0.5242  89.7430  63.9141  57.5000
132  44  2  0.5242  91.2570  63.9141  57.5000
133  45  1  -1.0484  93.5000  64.5000  57.5000
134  45  2  0.5242  92.7430  63.9141  57.5000
135  45  2  0.5242  94.2570  63.9141  57.5000
136  46  1  -1.0484  96.5000  64.5000  57.5000
137  46  2  0.5242  95.7430  63.9141  57.5000
138  46  2  0.5242  97.2570  63.9141  57.5000
139  47  1  -1.0484  99.5000  64.5000  57.5000
140  47  2  0.5242  98.7430  63.9141  57.5000
141  47  2  0.5242  100.2570  63.9141  57.5000
142  48  1  -1.0484  102.5000  64.5000  57.5000
143  48  2  0.5242  101.7430  63.9141  57.5000
144  48  2  0.5242  103.2570  63.9141  57.5000
145  49  1  -1.0484  57.5000  67.5000  57.5000
146  49  2  0.5242  56.7430  66.9141  57.5000
147  49  2  0.5242  58.2570  66.9141  57.5000
148  50  1  -1.0484  60.5000  67.5000  57.5000
149  50  2  0.5242  59.7430  66.9141  57.5000
150  50  2  0.5242  61.2570  66.9141  57.5000
151  51  1  -1.0484  63.5000  67.5000  57.5000
152  51  2  0.5242  62.7430  66.9141  57.5000
153  51  2  0.5242  64.2570  66.9141  57.5000
154  52  1  -1.0484  66.5000  67.5000  57.5000
155  52  2  0.5242  65.7430  66.9141  57.5000
156  52  2  0.5242  67.2570  66.9141  57.5000
157  53  1  -1.0484  69.5000  67.5000  57.5000
158  53  2  0.5242  68.7430  66.9141  57.5000
159  53  2  0.5242  70.2570  66.9141  57.5000
160  54  1  -1.0484  72.5000  67.5000  57.5000
161  54  2  0.5242  71.7430  66.9141  57.5000
162  54  2  0.5242  73.2570  66.9141  57.5000
163  55  1  -1.0484  75.5000  67.5000  57.5000
164  55  2  0.5242  74.7430  66.9141  57.5000
165  55  2  0.5242  76.2570  66.9141  57.5000
166  56  1  -1.0484  78.5000  67.5000  57.5000
167  56  2  0.5242  77.7430  66.9141  57.5000
168  56  2  0.5242  79.2570  66.9141  57.5000
169  57  1  -1.0484  81.5000  67.5000  57.5000
170  57  2  0.5242  80.7430  66.9141  57.5000
171  57  2  0.5242  82.2570  66.9141  57.5000
172  58  1  -1.0484  84.5000  67.5000  57.5000
173  58  2  0.5242  83.7430  66.9141  57.5000
174  58  2  0.5242  85.2570  66.9141  57.5000
175  59  1  -1.0484  87.5000  67.5000  57.5000
176  59  2  0.5242  86.7430  66.9141  57.5000
177  59  2  0.5242  88.2570  66.9141  57.5000
178  60  1  -1.0484  90.5000  67.5000  57.5000
179  60  2  0.5242  89.7430  66.9141  57.5000
180  60  2  0.5242  91.2570  66.9141  57.5000
181  61  1  -1.0484  93.5000  67.5000  57.5000
182  61  2  0.5242  92.7430  66.9141  57.5000
183  61  2  0.5242  94.2570  66.9141  57.5000
184  62  1  -1.0484  96.5000  67.5000  57.5000
185  62  2  0.5242  95.7430  66.9141  57.5000
186  62  2  0.5242  97.2570  66.9141  57.5000
187  63  1  -1.0484  99.5000  67.5000  57.5000
188  63  2  0.5242  98.7430  66.9141  57.5000
189  63  2  0.5242  100.2570  66.9141  57.5000
190  64  1  -1.0484  102.5000  67.5000  57.5000
191  64  2  0.5242  101.7430  66.9141  57.5000
192  64  2  0.5242  103.2570  66.9141  57.5000
193  65  1  -1.0484  57.5000  70.5000  57.5000
194  65  2  0.5242  56.7430  69.9141  57.5000
195  65  2  0.5242  58.2570  69.9141  57.5000
196  66  1  -1.0484  60.5000  70.5000  57.5000
197  66  2  0.5242  59.7430  69.9141  57.5000
198  66  2  0.5242  61.2570  69.9141  57.5000
199  67  1  -1.0484  63.5000  70.5000  57.5000
200  67  2  0.5242  62.7430  69.9141  57.5000
201  67  2  0.5242  64.2570  69.9141  57.5000
202  68  1  -1.0484  66.5000  70.5000  57.5000
203  68  2  0.5242  65.7430  69.9141  57.5000
204  68  2  0.5242  67.2570  69.9141  57.5000
205  69  1  -1.0484  69.5000  70.5000  57.5000
206  69  2  0.5242  68.7430  69.9141  57.5000
207  69  2  0.5242  70.2570  69.9141  57.5000
208  70  1  -1.0484  72.5000  70.5000  57.5000
209  70  2  0.5242  71.7430  69.9141  57.5000
210  70  2  0.5242  73.2570  69.9141  57.5000
211  71  1  -1.0484  75.5000  70.5000  57.5000
212  71  2  0.5242  74.7430  69.9141  57.5000
213  71  2  0.5242  76.2570  69.9141  57.5000
214  72  1  -1.0484  78.5000  70.5000  57.5000
215  72  2  0.5242  77.7430  69.9141  57.5000
216  72  2  0.5242  79.2570  69.9141  57.5000
217  73  1  -1.0484  81.5000  70.5000  57.5000
218  73  2  0.5242  80.7430  69.9141  57.5000
219  73  2  0.5242  82.2570  69.9141  57.5000
220  74  1  -1.0484  84.5000  70.5000  57.5000
221  74  2  0.5242  83.7430  69.9141  57.5000
222  74  2  0.5242  85.2570  69.9141  57.5000
223  75  1  -1.0484  87.5000  70.5000  57.5000
224  75  2  0.5242  86.7430  69.9141  57.5000
225  75  2  0.5242  88.2570  69.9141  57.5000
226  76  1  -1.0484  90.5000  70.5000  57.5000
227  76  2  0.5242  89.7430  69.9141  57.5000
228  76  2  0.5242  91.2570  69.9141  57.5000
229  77  1  -1.0484  93.5000  70.5000  57.5000
230  77  2  0.5242  92.7430  69.9141  57.5000
231  77  2  0.5242  94.2570  69.9141  57.5000
232  78  1  -1.0484  96.5000  70.5000  57.5000
233  78  2  0.5242  95.7430  69.9141  57.5000
234  78  2  0.5242  97.2570  69.9141  57.5000
235  79  1  -1.0484  99.5000  70.5000  57.5000
236  79  2  0.5242  98.7430  69.9141  57.5000
237  79  2  0.5242  100.2570  69.9141  57.5000
238  80  1  -1.0484  102.5000  70.5000  57.5000
239  80  2  0.5242  101.7430  69.9141  57.5000
240  80  2  0.5242  103.2570  69.9141  57.5000
241  81  1  -1.0484  57.5000  73.5000  57.5000
242  81  2  0.5242  56.7430  72.9141  57.5000
243  81  2  0.5242  58.2570  72.9141  57.5000
244  82  1  -1.0484  60.5000  73.5000  57.5000
245  82  2  0.5242  59.7430  72.9141  57.5000
246  82  2  0.5242  61.2570  72.9141  57.5000
247  83  1  -1.0484  63.5000  73.5000  57.5000
248  83  2  0.5242  62.7430  72.9141  57.5000
249  83  2  0.5242  64.2570  72.9141  57.5000
250  84  1  -1.0484  66.5000  73.5000  57.5000
251  84  2  0.5242  65.7430  72.9141  57.5000
252  84  2  0.5242  67.2570  72.9141  57.5000
253  85  1  -1.0484  69.5000  73.5000  57.5000
254  85  2  0.5242  68.7430  72.9141  57.5000
255  85  2  0.5242  70.2570  72.9141  57.5000
256  86  1  -1.0484  72.5000  73.5000  57.5000
257  86  2  0.5242  71.7430  72.9141  57.5000
258  86  2  0.5242  73.2570  72.9141  57.5000
259  87  1  -1.0484  75.5000  73.5000  57.5000
260  87  2  0.5242  74.7430  72.9141  57.5000
261  87  2  0.5242  76.2570  72.9141  57.5000
262  88  1  -1.0484  78.5000  73.5000  57.5000
263  88  2  0.5242  77.7430  72.9141  57.5000
264  88  2  0.5242  79.2570  72.9141  57.5000
265  89  1  -1.0484  81.5000  73.5000  57.5000
266  89  2  0.5242  80.7430  72.9141  57.5000
267  89  2  0.5242  82.2570  72.9141  57.5000
268  90  1  -1.0484  84.5000  73.5000  57.5000
269  90  2  0.5242  83.7430  72.9141  57.5000
270  90  2  0.5242  85.2570  72.9141  57.5000
271  91  1  -1.0484  87.5000  73.5000  57.5000
272  91  2  0.5242  86.7430  72.9141  57.5000
273  91  2  0.5242  88.2570  72.9141  57.5000
274  92  1  -1.0484  90.5000  73.5000  57.5000
275  92  2  0.5242  89.7430  72.9141  57.5000
276  92  2  0.5242  91.2570  72.9141  57.5000
277  93  1  -1.0484  93.5000  73.5000  57.5000
278  93  2  0.5242  92.7430  72.9141  57.5000
279  93  2  0.5242  94.2570  72.9141  57.5000
280  94  1  -1.0484  96.5000  73.5000  57.5000
281  94  2  0.5242  95.7430  72.9141  57.5000
282  94  2  0.5242  97.2570  72.9141  57.5000
283  95  1  -1.0484  99.5000  73.5000  57.5000
284  95  2  0.5242  98.7430  72.9141  57.5000
285  95  2  0.5242  100.2570  72.9141  57.5000
286  96  1  -1.0484  102.5000  73.5000  57.5000
287  96  2  0.5242  101.7430  72.9141  57.5000
288  96  2  0.5242  103.2570  72.9141  57.5000
289  97  1  -1.0484  57.5000  76.5000  57.5000
290  97  2  0.5242  56.7430  75.9141  57.5000
291  97  2  0.5242  58.2570  75.9141  57.5000
292  98  1  -1.0484  60.5000  76.5000  57.5000
293  98  2  0.5242  59.7430  75.9141  57.5000
294  98  2  0.5242  61.2570  75.9141  57.5000
295  99  1  -1.0484  63.5000  76.5000  57.5000
296  99  2  0.5242  62.7430  75.9141  57.5000
297  99  2  0.5242  64.2570  75.9141  57.5000
298  100  1  -1.0484  66.5000  76.5000  57.5000
299  100  2  0.5242  65.7430  75.9141  57.5000
300  100  2  0.5242  67.2570  75.9141  57.5000
301  101  1  -1.0484  69.5000  76.5000  57.5000
302  101  2  0.5242  68.7430  75.9141  57.5000
303  101  2  0.5242  70.2570  75.9141  57.5000
304  102  1  -1.0484  72.5000  76.5000  57.5000
305  102  2  0.5242  71.7430  75.9141  57.5000
306  102  2  0.5242  73.2570  75.9141  57.5000
307  103  1  -1.0484  75.5000  76.5000  57.5000
308  103  2  0.5242  74.7430  75.9141  57.5000
309  103  2  0.5242  76.2570  75.9141  57.5000
310  104  1  -1.0484  78.5000  76.5000  57.5000
311  104  2  0.5242  77.7430  75.9141  57.5000
312  104  2  0.5242  79.2570  75.9141  57.5000
313  105  1  -1.0484  81.5000  76.5000  57.5000
314  105  2  0.5242  80.7430  75.9141  57.5000
315  105  2  0.5242  82.2570  75.9141  57.5000
316  106  1  -1.0484  84.5000  76.5000  57.5000
317  106  2  0.5242  83.7430  75.9141  57.5000
318  106  2  0.5242  85.2570  75.9141  57.5000
319  107  1  -1.0484  87.5000  76.5000  57.5000
320  107  2  0.5242  86.7430  75.9141  57.5000
321  107  2  0.5242  88.2570  75.9141  57.5000
322  108  1  -1.0484  90.5000  76.5000  57.5000
323  108  2  0.5242  89.7430  75.9141  57.5000
324  108  2  0.5242  91.2570  75.9141  57.5000
325  109  1  -1.0484  93.5000  76.5000  57.5000
326  109  2  0.5242  92.7430  75.9141  57.5000
327  109  2  0.5242  94.2570  75.9141  57.5000
328  110  1  -1.0484  96.5000  76.5000  57.5000
329  110  2  0.5242  95.7430  75.9141  57.5000
330  110  2  0.5242  97.2570  75.9141  57.5000
331  111  1  -1.0484  99.5000  76.5000  57.5000
332  111  2  0.5242  98.7430  75.9141  57.5000
333  111  2  0.5242  100.2570  75.9141  57.5000
334  112  1  -1.0484  102.5000  76.5000  57.5000
335  112  2  0.5242  101.7430  75.9141  57.5000
336  112  2  0.5242  103.2570  75.9141  57.5000
337  113  1  -1.0484  57.5000  79.5000  57.5000
338  113  2  0.5242  56.7430  78.9141  57.5000
339  113  2  0.5242  58.2570  78.9141  57.5000
340  114  1  -1.0484  60.5000  79.5000  57.5000
341  114  2  0.5242  59.7430  78.9141  57.5000
342  114  2  0.5242  61.2570  78.9141  57.5000
343  115  1  -1.0484  63.5000  79.5000  57.5000
344  115  2  0.5242  62.7430  78.9141  57.5000
345  115  2  0.5242  64.2570  78.9141  57.5000
346  116  1  -1.0484  66.5000  79.5000  57.5000
347  116  2  0.5242  65.7430  78.9141  57.5000
348  116  2  0.5242  67.2570  78.9141  57.5000
349  117  1  -1.0484  69.5000  79.5000  57.5000
350  117  2  0.5242  68.7430  78.9141  57.5000
351  117  2  0.5242  70.2570  78.9141  57.5000
352  118  1  -1.0484  72.5000  79.5000  57.5000
353  118  2  0.5242  71.7430  78.9141  57.5000
354  118  2  0.5242  73.2570  78.9141  57.5000
355  119  1  -1.0484  75.5000  79.5000  57.5000
356  119  2  0.5242  74.7430  78.9141  57.5000
357  119  2  0.5242  76.2570  78.9141  57.5000
358  120  1  -1.0484  78.5000  79.5000  57.5000
359  120  2  0.5242  77.7430  78.9141  57.5000
360  120  2  0.5242  79.2570  78.9141  57.5000
361  121  1  -1.0484  81.5000  79.5000  57.5000
362  121  2  0.5242  80.7430  78.9141  57.5000
363  121  2  0.5242  82.2570  78.9141  57.5000
364  122  1  -1.0484  84.5000  79.5000  57.5000
365  122  2  0.5242  83.7430  78.9141  57.5000
366  122  2  0.5242  85.2570  78.9141  57.5000
367  123  1  -1.0484  87.5000  79.5000  57.5000
368  123  2  0.5242  86.7430  78.9141  57.5000
369  123  2  0.5242  88.2570  78.9141  57.5000
370  124  1  -1.0484  90.5000  79.5000  57.5000
371  124  2  0.5242  89.7430  78.9141  57.5000
372  124  2  0.5242  91.2570  78.9141  57.5000
373  125  1  -1.0484  93.5000  79.5000  57.5000
374  125  2  0.5242  92.7430  78.9141  57.5000
375  125  2  0.5242  94.2570  78.9141  57.5000
376  126  1  -1.0484  96.5000  79.5000  57.5000
377  126  2  0.5242  95.7430  78.9141  57.5000
378  126  2  0.5242  97.2570  78.9141  57.5000
379  127  1  -1.0484  99.5000  79.5000  57.5000
380  127  2  0.5242  98.7430  78.9141  57.5000
381  127  2  0.5242  100.2570  78.9141  57.5000
382  128  1  -1.0484  102.5000  79.5000  57.5000
383  128  2  0.5242  101.7430  78.9141  57.5000
384  128  2  0.5242  103.2570  78.9141  57.5000
385  129  1  -1.0484  57.5000  82.5000  57.5000
386  129  2  0.5242  56.7430  81.9141  57.5000
387  129  2  0.5242  58.2570  81.9141  57.5000
388  130  1  -1.0484  60.5000  82.5000  57.5000
389  130  2  0.5242  59.7430  81.9141  57.5000
390  130  2  0.5242  61.2570  81.9141  57.5000
391  131  1  -1.0484  63.5000  82.5000  57.5000
392  131  2  0.5242  62.7430  81.9141  57.5000
393  131  2  0.5242  64.2570  81.9141  57.5000
394  132  1  -1.0484  66.5000  82.5000  57.5000
395  132  2  0.5242  65.7430  81.9141  57.5000
396  132  2  0.5242  67.2570  81.9141  57.5000
397  133  1  -1.0484  69.5000  82.5000  57.5000
398  133  2  0.5242  68.7430  81.9141  57.5000
399  133  2  0.5242  70.2570  81.9141  57.5000
400  134  1  -1.0484  72.5000  82.5000  57.5000
401  134  2  0.5242  71.7430  81.9141  57.5000
402  134  2  0.5242  73.2570  81.9141  57.5000
403  135  1  -1.0484  75.5000  82.5000  57.5000
404  135  2  0.5242  74.7430  81.9141  57.5000
405  135  2  0.5242  76.2570  81.9141  57.5000
406  136  1  -1.0484  78.5000  82.5000  57.5000
407  136  2  0.5242  77.7430  81.9141  57.5000
408  136  2  0.5242  79.2570  81.9141  57.5000
409  137  1  -1.0484  81.5000  82.5000  57.5000
410  137  2  0.5242  80.7430  81.9141  57.5000
411  137  2  0.5242  82.2570  81.9141  57.5000
412  138  1  -1.0484  84.5000  82.5000  57.5000
413  138  2  0.5242  83.7430  81.9141  57.5000
414  138  2  0.5242  85.2570  81.9141  57.5000
415  139  1  -1.0484  87.5000  82.5000  57.5000
416  139  2  0.5242  86.7430  81.9141  57.5000
417  139  2  0.5242  88.2570  81.9141  57.5000
418  140  1  -1.0484  90.5000  82.5000  57.5000
419  140  2  0.5242  89.7430  81.9141  57.5000
420  140  2  0.5242  91.2570  81.9141  57.5000
421  141  1  -1.0484  93.5000  82.5000  57.5000
422  141  2  0.5242  92.7430  81.9141  57.5000
423  141  2  0.5242  94.2570  81.9141  57.5000
424  142  1  -1.0484  96.5000  82.5000  57.5000
425  142  2  0.5242  95.7430  81.9141  57.5000
426  142  2  0.5242  97.2570  81.9141  57.5000
427  143  1  -1.0484  99.5000  82.5000  57.5000
428  143  2  0.5242  98.7430  81.9141  57.5000
429  143  2  0.5242  100.2570  81.9141  57.5000
430  144  1  -1.0484  102.5000  82.5000  57.5000
431  144  2  0.5242  101.7430  81.9141  57.5000
432  144  2  0.5242  103.2570  81.9141  57.5000
433  145  1  -1.0484  57.5000  85.5000  57.5000
434  145  2  0.5242  56.7430  84.9141  57.5000
435  145  2  0.5242  58.2570  84.9141  57.5000
436  146  1  -1.0484  60.5000  85.5000  57.5000
437  146  2  0.5242  59.7430  84.9141  57.5000
438  146  2  0.5242  61.2570  84.9141  57.5000
439  147  1  -1.0484  63.5000  85.5000  57.5000
440  147  2  0.5242  62.7430  84.9141  57.5000
441  147  2  0.5242  64.2570  84.9141  57.5000
442  148  1  -1.0484  66.5000  85.5000  57.5000
443  148  2  0.5242  65.7430  84.9141  57.5000
444  148  2  0.5242  67.2570  84.9141  57.5000
445  149  1  -1.0484  69.5000  85.5000  57.5000
446  149  2  0.5242  68.7430  84.9141  57.5000
447  149  2  0.5242  70.2570  84.9141  57.5000
448  150  1  -1.0484  72.5000  85.5000  57.5000
449  150  2  0.5242  71.7430  84.9141  57.5000
450  150  2  0.5242  73.2570  84.9141  57.5000
451  151  1  -1.0484  75.5000  85.5000  57.5000
452  151  2  0.5242  74.7430  84.9141  57.5000
453  151  2  0.5242  76.2570  84.9141  57.5000
454  152  1  -1.0484  78.5000  85.5000  57.5000
455  152  2  0.5242  77.7430  84.9141  57.5000
456  152  2  0.5242  79.2570  84.9141  57.5000
457  153  1  -1.0484  81.5000  85.5000  57.5000
458  153  2  0.5242  80.7430  84.9141  57.5000
459  153  2  0.5242  82.2570  84.9141  57.5000
460  154  1  -1.0484  84.5000  85.5000  57.5000
461  154  2  0.5242  83.7430  84.9141  57.5000
462  154  2  0.5242  85.2570  84.9141  57.5000
463  155  1  -1.0484  87.5000  85.5000  57.5000
464  155  2  0.5242  86.7430  84.9141  57.5000
465  155  2  0.5242  88.2570  84.9141  57.5000
466  156  1  -1.0484  90.5000  85.5000  57.5000
467  156  2  0.5242  89.7430  84.9141  57.5000
468  156  2  0.5242  91.2570  84.9141  57.5000
469  157  1  -1.0484  93.5000  85.5000  57.5000
470  157  2  0.5242  92.7430  84.9141  57.5000
471  157  2  0.5242  94.2570  84.9141  57.5000
472  158  1  -1.0484  96.5000  85.5000  57.5000
473  158  2  0.5242  95.7430  84.9141  57.5000
474  158  2  0.5242  97.2570  84.9141  57.5000
475  159  1  -1.0484  99.5000  85.5000  57.5000
476  159  2  0.5242  98.7430  84.9141  57.5000
477  159  2  0.5242  100.2570  84.9141  57.5000
478  160  1  -1.0484  102.5000  85.5000  57.5000
479  160  2  0.5242  101.7430  84.9141  57.5000
480  160  2  0.5242  103.2570  84.9141  57.5000
481  161  1  -1.0484  57.5000  88.5000  57.5000
482  161  2  0.5242  56.7430  87.9141  57.5000
483  161  2  0.5242  58.2570  87.9141  57.5000
484  162  1  -1.0484  60.5000  88.5000  57.5000
485  162  2  0.5242  59.7430  87.9141  57.5000
486  162  2  0.5242  61.2570  87.9141  57.5000
487  163  1  -1.0484  63.5000  88.5000  57.5000
488  163  2  0.5242  62.7430  87.9141  57.5000
489  163  2  0.5242  64.2570  87.9141  57.5000
490  164  1  -1.0484  66.5000  88.5000  57.5000
491  164  2  0.5242  65.7430  87.9141  57.5000
492  164  2  0.5242  67.2570  87.9141  57.5000
493  165  1  -1.0484  69.5000  88.5000  57.5000
494  165  2  0.5242  68.7430  87.9141  57.5000
495  165  2  0.5242  70.2570  87.9141  57.5000
496  166  1  -1.0484  72.5000  88.5000  57.5000
497  166  2  0.5242  71.7430  87.9141  57.5000
498  166  2  0.5242  73.2570  87.9141  57.5000
499  167  1  -1.0484  75.5000  88.5000  57.5000
500  167  2  0.5242  74.7430  87.9141  57.5000
501  167  2  0.5242  76.2570  87.9141  57.5000
502  168  1  -1.0484  78.5000  88.5000  57.5000
503  168  2  0.5242  77.7430  87.9141  57.5000
504  168  2  0.5242  79.2570  87.9141  57.5000
505  169  1  -1.0484  81.5000  88.5000  57.5000
506  169  2  0.5242  80.7430  87.9141  57.5000
507  169  2  0.5242  82.2570  87.9141  57.5000
508  170  1  -1.0484  84.5000  88.5000  57.5000
509  170  2  0.5242  83.7430  87.9141  57.5000
510  170  2  0.5242  85.2570  87.9141  57.5000
511  171  1  -1.0484  87.5000  88.5000  57.5000
512  171  2  0.5242  86.7430  87.9141  57.5000
513  171  2  0.5242  88.2570  87.9141  57.5000
514  172  1  -1.0484  90.5000  88.5000  57.5000
515  172  2  0.5242  89.7430  87.9141  57.5000
516  172  2  0.5242  91.2570  87.9141  57.5000
517  173  1  -1.0484  93.5000  88.5000  57.5000
518  173  2  0.5242  92.7430  87.9141  57.5000
519  173  2  0.5242  94.2570  87.9141  57.5000
520  174  1  -1.0484  96.5000  88.5000  57.5000
521  174  2  0.5242  95.7430  87.9141  57.5000
522  174  2  0.5242  97.2570  87.9141  57.5000
523  175  1  -1.0484  99.5000  88.5000  57.5000
524  175  2  0.5242  98.7430  87.9141  57.5000
525  175  2  0.5242  100.2570  87.9141  57.5000
526  176  1  -1.0484  102.5000  88.5000  57.5000
527  176  2  0.5242  101.7430  87.9141  57.5000
528  176  2  0.5242  103.2570  87.9141  57.5000
529  177  1  -1.0484  57.5000  91.5000  57.5000
530  177  2  0.5242  56.7430  90.9141  57.5000
531  177  2  0.5242  58.2570  90.9141  57.5000
532  178  1  -1.0484  60.5000  91.5000  57.5000
533  178  2  0.5242  59.7430  90.9141  57.5000
534  178  2  0.5242  61.2570  90.9141  57.5000
535  179  1  -1.0484  63.5000  91.5000  57.5000
536  179  2  0.5242  62.7430  90.9141  57.5000
537  179  2  0.5242  64.2570  90.9141  57.5000
538  180  1  -1.0484  66.5000  91.5000  57.5000
539  180  2  0.5242  65.7430  90.9141  57.5000
540  180  2  0.5242  67.2570  90.9141  57.5000
541  181  1  -1.0484  69.5000  91.5000  57.5000
542  181  2  0.5242  68.7430  90.9141  57.5000
543  181  2  0.5242  70.2570  90.9141  57.5000
544  182  1  -1.0484  72.5000  91.5000  57.5000
545  182  2  0.5242  71.7430  90.9141  57.5000
546  182  2  0.5242  73.2570  90.9141  57.5000
547  183  1  -1.0484  75.5000  91.5000  57.5000
548  183  2  0.5242  74.7430  90.9141  57.5000
549  183  2  0.5242  76.2570  90.9141  57.5000
550  184  1  -1.0484  78.5000  91.5000  57.5000
551  184  2  0.5242  77.7430  90.9141  57.5000
552  184  2  0.5242  79.2570  90.9141  57.5000
553  185  1  -1.0484  81.5000  91.5000  57.5000
554  185  2  0.5242  80.7430  90.9141  57.5000
555  185  2  0.5242  82.2570  90.9141  57.5000
556  186  1  -1.0484  84.5000  91.5000  57.5000
557  186  2  0.5242  83.7430  90.9141  57.5000
558  186  2  0.5242  85.2570  90.9141  57.5000
559  187  1  -1.0484  87.5000  91.5000  57.5000
560  187  2  0.5242  86.7430  90.9141  57.5000
561  187  2  0.5242  88.2570  90.9141  57.5000
562  188  1  -1.0484  90.5000  91.5000  57.5000
563  188  2  0.5242  89.7430  90.9141  57.5000
564  188  2  0.5242  91.2570  90.9141  57.5000
565  189  1  -1.0484  93.5000  91.5000  57.5000
566  189  2  0.5242  92.7430  90.9141  57.5000
567  189  2  0.5242  94.2570  90.9141  57.5000
568  190  1  -1.0484  96.5000  91.5000  57.5000
569  190  2  0.5242  95.7430  90.9141  57.5000
570  190  2  0.5242  97.2570  90.9141  57.5000
571  191  1  -1.0484  99.5000  91.5000  57.5000
572  191  2  0.5242  98.7430  90.9141  57.5000
573  191  2  0.5242  100.2570  90.9141  57.5000
574  192  1  -1.0484  102.5000  91.5000  57.5000
575  192  2  0.5242  101.7430  90.9141  57.5000
576  192  2  0.5242  103.2570  90.9141  57.5000
577  193  1  -1.0484  57.5000  94.5000  57.5000
578  193  2  0.5242  56.7430  93.9141  57.5000
579  193  2  0.5242  58.2570  93.9141  57.5000
580  194  1  -1.0484  60.5000  94.5000  57.5000
581  194  2  0.5242  59.7430  93.9141  57.5000
582  194  2  0.5242  61.2570  93.9141  57.5000
583  195  1  -1.0484  63.5000  94.5000  57.5000
584  195  2  0.5242  62.7430  93.9141  57.5000
585  195  2  0.5242  64.2570  93.9141  57.5000
586  196  1  -1.0484  66.5000  94.5000  57.5000
587  196  2  0.5242  65.7430  93.9141  57.5000
588  196  2  0.5242  67.2570  93.9141  57.5000
589  197  1  -1.0484  69.5000  94.5000  57.5000
590  197  2  0.5242  68.7430  93.9141  57.5000
591  197  2  0.5242  70.2570  93.9141  57.5000
592  198  1  -1.0484  72.5000  94.5000  57.5000
593  198  2  0.5242  71.7430  93.9141  57.5000
594  198  2  0.5242  73.2570  93.9141  57.5000
595  199  1  -1.0484  75.5000  94.5000  57.5000
596  199  2  0.5242  74.7430  93.9141  57.5000
597  199  2  0.5242  76.2570  93.9141  57.5000
598  200  1  -1.0484  78.5000  94.5000  57.5000
599  200  2  0.5242  77.7430  93.9141  57.5000
600  200  2  0.5242  79.2570  93.9141  57.5000
601  201  1  -1.0484  81.5000  94.5000  57.5000
602  201  2  0.5242  80.7430  93.9141  57.5000
603  201  2  0.5242  82.2570  93.9141  57.5000
604  202  1  -1.0484  84.5000  94.5000  57.5000
605  202  2  0.5242  83.7430  93.9141  57.5000
606  202  2  0.5242  85.2570  93.9141  57.5000
607  203  1  -1.0484  87.5000  94.5000  57.5000
608  203  2  0.5242  86.7430  93.9141  57.5000
609  203  2  0.5242  88.2570  93.9141  57.5000
610  204  1  -1.0484  90.5000  94.5000  57.5000
611  204  2  0.5242  89.7430  93.9141  57.5000
612  204  2  0.5242  91.2570  93.9141  57.5000
613  205  1  -1.0484  93.5000  94.5000  57.5000
614  205  2  0.5242  92.7430  93.9141  57.5000
615  205  2  0.5242  94.2570  93.9141  57.5000
616  206  1  -1.0484  96.5000  94.5000  57.5000
617  206  2  0.5242  95.7430  93.9141  57.5000
618  206  2  0.5242  97.2570  93.9141  57.5000
619  207  1  -1.0484  99.5000  94.5000  57.5000
620  207  2  0.5242  98.7430  93.9141  57.5000
621  207  2  0.5242  100.2570  93.9141  57.5000
622  208  1  -1.0484  102.5000  94.5000  57.5000
623  208  2  0.5242  101.7430  93.9141  57.5000
624  208  2  0.5242  103.2570  93.9141  57.5000
625  209  1  -1.0484  57.5000  97.5000  57.5000
626  209  2  0.5242  56.7430  96.9141  57.5000
627  209  2  0.5242  58.2570  96.9141  57.5000
628  210  1  -1.0484  60.5000  97.5000  57.5000
629  210  2  0.5242  59.7430  96.9141  57.5000
630  210  2  0.5242  61.2570  96.9141  57.5000
631  211  1  -1.0484  63.5000  97.5000  57.5000
632  211  2  0.5242  62.7430  96.9141  57.5000
633  211  2  0.5242  64.2570  96.9141  57.5000
634  212  1  -1.0484  66.5000  97.5000  57.5000